4
Kinetic Energy: 0.594604, Potential Energy: -0.089070, Total Energy: 0.505534
Atom1 0.000005 0.000010 -0.041264
Atom2 0.000035 0.000071 0.341422
Atom3 0.099997 0.199993 -0.699975
Atom4 0.099968 0.199936 0.799836
4
Kinetic Energy: 0.458004, Potential Energy: 0.073433, Total Energy: 0.531437
Atom1 0.002677 0.005353 -0.447643
Atom2 -0.044808 -0.089615 0.632909
Atom3 0.097709 0.195419 -0.687633
Atom4 0.139176 0.278352 0.888081
4
Kinetic Energy: 0.503276, Potential Energy: -0.004789, Total Energy: 0.498487
Atom1 -0.094349 -0.188697 -0.599774
Atom2 -0.131277 -0.262553 0.806597
Atom3 0.182708 0.365417 -0.894928
Atom4 0.214825 0.429650 1.076503
4
Kinetic Energy: 0.498889, Potential Energy: -0.000440, Total Energy: 0.498449
Atom1 -0.185062 -0.370123 -0.759336
Atom2 -0.215412 -0.430824 0.982525
Atom3 0.262179 0.524357 -1.095626
Atom4 0.288433 0.576866 1.262873
4
Kinetic Energy: 0.498530, Potential Energy: -0.000082, Total Energy: 0.498448
Atom1 -0.275440 -0.550880 -0.919167
Atom2 -0.299400 -0.598800 1.158527
Atom3 0.341356 0.682712 -1.296069
Atom4 0.361912 0.723824 1.449160
4
Kinetic Energy: 0.498470, Potential Energy: -0.000023, Total Energy: 0.498447
Atom1 -0.365787 -0.731574 -1.079013
Atom2 -0.383368 -0.766736 1.334533
Atom3 0.420506 0.841012 -1.496494
Atom4 0.435373 0.870746 1.635437
4
Kinetic Energy: 0.498455, Potential Energy: -0.000008, Total Energy: 0.498447
Atom1 -0.456129 -0.912257 -1.238861
Atom2 -0.467331 -0.934662 1.510540
Atom3 0.499652 0.999303 -1.696917
Atom4 0.508830 1.017661 1.821712
4
Kinetic Energy: 0.498451, Potential Energy: -0.000003, Total Energy: 0.498447
Atom1 -0.546469 -1.092938 -1.398709
Atom2 -0.551293 -1.102586 1.686546
Atom3 0.578796 1.157591 -1.897338
Atom4 0.582287 1.164573 2.007987
4
Kinetic Energy: 0.498449, Potential Energy: -0.000002, Total Energy: 0.498447
Atom1 -0.636809 -1.273618 -1.558557
Atom2 -0.635255 -1.270509 1.862552
Atom3 0.657939 1.315879 -2.097759
Atom4 0.655742 1.311485 2.194261
4
Kinetic Energy: 0.498448, Potential Energy: -0.000001, Total Energy: 0.498447
Atom1 -0.727149 -1.454298 -1.718405
Atom2 -0.719216 -1.438432 2.038558
Atom3 0.737083 1.474166 -2.298180
Atom4 0.729198 1.458396 2.380536
4
Kinetic Energy: 0.498448, Potential Energy: -0.000000, Total Energy: 0.498447
Atom1 -0.817488 -1.634977 -1.878252
Atom2 -0.803177 -1.606355 2.214565
Atom3 0.816227 1.632453 -2.498602
Atom4 0.802654 1.605307 2.566811
4
Kinetic Energy: 0.498448, Potential Energy: -0.000000, Total Energy: 0.498447
Atom1 -0.907828 -1.815656 -2.038100
Atom2 -0.887139 -1.774277 2.390571
Atom3 0.895370 1.790740 -2.699023
Atom4 0.876109 1.752218 2.753085
4
Kinetic Energy: 0.498448, Potential Energy: -0.000000, Total Energy: 0.498447
Atom1 -0.998168 -1.996336 -2.197948
Atom2 -0.971100 -1.942200 2.566577
Atom3 0.974514 1.949027 -2.899444
Atom4 0.949565 1.899129 2.939360
4
Kinetic Energy: 0.498447, Potential Energy: -0.000000, Total Energy: 0.498447
Atom1 -1.088507 -2.177015 -2.357795
Atom2 -1.055061 -2.110122 2.742583
Atom3 1.053657 2.107315 -3.099865
Atom4 1.023020 2.046040 3.125634
4
Kinetic Energy: 0.498447, Potential Energy: -0.000000, Total Energy: 0.498447
Atom1 -1.178847 -2.357694 -2.517643
Atom2 -1.139022 -2.278044 2.918589
Atom3 1.132801 2.265602 -3.300286
Atom4 1.096476 2.192951 3.311909
4
Kinetic Energy: 0.498447, Potential Energy: -0.000000, Total Energy: 0.498447
Atom1 -1.269187 -2.538373 -2.677491
Atom2 -1.222983 -2.445967 3.094595
Atom3 1.211944 2.423889 -3.500707
Atom4 1.169931 2.339862 3.498183
4
Kinetic Energy: 0.498447, Potential Energy: -0.000000, Total Energy: 0.498447
Atom1 -1.359526 -2.719053 -2.837338
Atom2 -1.306945 -2.613889 3.270601
Atom3 1.291088 2.582176 -3.701128
Atom4 1.243387 2.486773 3.684458
4
Kinetic Energy: 0.498447, Potential Energy: -0.000000, Total Energy: 0.498447
Atom1 -1.449866 -2.899732 -2.997186
Atom2 -1.390906 -2.781812 3.446607
Atom3 1.370231 2.740463 -3.901549
Atom4 1.316842 2.633684 3.870732
4
Kinetic Energy: 0.498447, Potential Energy: -0.000000, Total Energy: 0.498447
Atom1 -1.540206 -3.080411 -3.157034
Atom2 -1.474867 -2.949734 3.622613
Atom3 1.449375 2.898750 -4.101970
Atom4 1.390298 2.780595 4.057007
4
Kinetic Energy: 0.498447, Potential Energy: -0.000000, Total Energy: 0.498447
Atom1 -1.630545 -3.261090 -3.316881
Atom2 -1.558828 -3.117656 3.798619
Atom3 1.528518 3.057037 -4.302391
Atom4 1.463753 2.927507 4.243281
4
Kinetic Energy: 0.498447, Potential Energy: -0.000000, Total Energy: 0.498447
Atom1 -1.720885 -3.441770 -3.476729
Atom2 -1.642789 -3.285579 3.974625
Atom3 1.607662 3.215324 -4.502812
Atom4 1.537209 3.074418 4.429556
4
Kinetic Energy: 0.498447, Potential Energy: -0.000000, Total Energy: 0.498447
Atom1 -1.811224 -3.622449 -3.636577
Atom2 -1.726751 -3.453501 4.150631
Atom3 1.686805 3.373611 -4.703233
Atom4 1.610664 3.221329 4.615830
4
Kinetic Energy: 0.498447, Potential Energy: -0.000000, Total Energy: 0.498447
Atom1 -1.901564 -3.803128 -3.796424
Atom2 -1.810712 -3.621424 4.326637
Atom3 1.765949 3.531898 -4.903654
Atom4 1.684120 3.368240 4.802105
4
Kinetic Energy: 0.498447, Potential Energy: -0.000000, Total Energy: 0.498447
Atom1 -1.991904 -3.983807 -3.956272
Atom2 -1.894673 -3.789346 4.502643
Atom3 1.845092 3.690185 -5.104075
Atom4 1.757575 3.515151 4.988379
4
Kinetic Energy: 0.498447, Potential Energy: -0.000000, Total Energy: 0.498447
Atom1 -2.082243 -4.164487 -4.116120
Atom2 -1.978634 -3.957269 4.678649
Atom3 1.924236 3.848472 -5.304496
Atom4 1.831031 3.662062 5.174654
4
Kinetic Energy: 0.498447, Potential Energy: -0.000000, Total Energy: 0.498447
Atom1 -2.172583 -4.345166 -4.275967
Atom2 -2.062595 -4.125191 4.854655
Atom3 2.003379 4.006759 -5.504917
Atom4 1.904486 3.808973 5.360928
4
Kinetic Energy: 0.498447, Potential Energy: -0.000000, Total Energy: 0.498447
Atom1 -2.262923 -4.525845 -4.435815
Atom2 -2.146557 -4.293113 5.030661
Atom3 2.082523 4.165046 -5.705338
Atom4 1.977942 3.955884 5.547203
4
Kinetic Energy: 0.498447, Potential Energy: -0.000000, Total Energy: 0.498447
Atom1 -2.353262 -4.706525 -4.595663
Atom2 -2.230518 -4.461036 5.206667
Atom3 2.161667 4.323333 -5.905759
Atom4 2.051397 4.102795 5.733477
4
Kinetic Energy: 0.498447, Potential Energy: -0.000000, Total Energy: 0.498447
Atom1 -2.443602 -4.887204 -4.755510
Atom2 -2.314479 -4.628958 5.382674
Atom3 2.240810 4.481620 -6.106181
Atom4 2.124853 4.249706 5.919752
4
Kinetic Energy: 0.498447, Potential Energy: -0.000000, Total Energy: 0.498447
Atom1 -2.533942 -5.067883 -4.915358
Atom2 -2.398440 -4.796881 5.558680
Atom3 2.319954 4.639907 -6.306602
Atom4 2.198308 4.396617 6.106026
4
Kinetic Energy: 0.498447, Potential Energy: -0.000000, Total Energy: 0.498447
Atom1 -2.624281 -5.248562 -5.075206
Atom2 -2.482402 -4.964803 5.734686
Atom3 2.399097 4.798194 -6.507023
Atom4 2.271764 4.543528 6.292301
4
Kinetic Energy: 0.498447, Potential Energy: -0.000000, Total Energy: 0.498447
Atom1 -2.714621 -5.429242 -5.235053
Atom2 -2.566363 -5.132725 5.910692
Atom3 2.478241 4.956481 -6.707444
Atom4 2.345219 4.690439 6.478575
4
Kinetic Energy: 0.498447, Potential Energy: -0.000000, Total Energy: 0.498447
Atom1 -2.804960 -5.609921 -5.394901
Atom2 -2.650324 -5.300648 6.086698
Atom3 2.557384 5.114768 -6.907865
Atom4 2.418675 4.837350 6.664850
4
Kinetic Energy: 0.498447, Potential Energy: -0.000000, Total Energy: 0.498447
Atom1 -2.895300 -5.790600 -5.554749
Atom2 -2.734285 -5.468570 6.262704
Atom3 2.636528 5.273055 -7.108286
Atom4 2.492130 4.984261 6.851124
4
Kinetic Energy: 0.498447, Potential Energy: -0.000000, Total Energy: 0.498447
Atom1 -2.985640 -5.971279 -5.714596
Atom2 -2.818246 -5.636493 6.438710
Atom3 2.715671 5.431342 -7.308707
Atom4 2.565586 5.131172 7.037399
4
Kinetic Energy: 0.498447, Potential Energy: -0.000000, Total Energy: 0.498447
Atom1 -3.075979 -6.151959 -5.874444
Atom2 -2.902208 -5.804415 6.614716
Atom3 2.794815 5.589629 -7.509128
Atom4 2.639041 5.278083 7.223673
4
Kinetic Energy: 0.498447, Potential Energy: -0.000000, Total Energy: 0.498447
Atom1 -3.166319 -6.332638 -6.034292
Atom2 -2.986169 -5.972338 6.790722
Atom3 2.873958 5.747916 -7.709549
Atom4 2.712497 5.424994 7.409948
4
Kinetic Energy: 0.498447, Potential Energy: -0.000000, Total Energy: 0.498447
Atom1 -3.256659 -6.513317 -6.194139
Atom2 -3.070130 -6.140260 6.966728
Atom3 2.953102 5.906203 -7.909970
Atom4 2.785952 5.571905 7.596222
4
Kinetic Energy: 0.498447, Potential Energy: -0.000000, Total Energy: 0.498447
Atom1 -3.346998 -6.693996 -6.353987
Atom2 -3.154091 -6.308182 7.142734
Atom3 3.032245 6.064490 -8.110391
Atom4 2.859408 5.718816 7.782497
4
Kinetic Energy: 0.498447, Potential Energy: -0.000000, Total Energy: 0.498447
Atom1 -3.437338 -6.874676 -6.513834
Atom2 -3.238052 -6.476105 7.318740
Atom3 3.111389 6.222777 -8.310812
Atom4 2.932863 5.865727 7.968771
4
Kinetic Energy: 0.498447, Potential Energy: -0.000000, Total Energy: 0.498447
Atom1 -3.527677 -7.055355 -6.673682
Atom2 -3.322014 -6.644027 7.494746
Atom3 3.190532 6.381064 -8.511233
Atom4 3.006319 6.012638 8.155046
4
Kinetic Energy: 0.498447, Potential Energy: -0.000000, Total Energy: 0.498447
Atom1 -3.618017 -7.236034 -6.833530
Atom2 -3.405975 -6.811950 7.670752
Atom3 3.269676 6.539352 -8.711654
Atom4 3.079774 6.159549 8.341320
4
Kinetic Energy: 0.498447, Potential Energy: -0.000000, Total Energy: 0.498447
Atom1 -3.708357 -7.416713 -6.993377
Atom2 -3.489936 -6.979872 7.846758
Atom3 3.348819 6.697639 -8.912075
Atom4 3.153230 6.306460 8.527595
4
Kinetic Energy: 0.498447, Potential Energy: -0.000000, Total Energy: 0.498447
Atom1 -3.798696 -7.597393 -7.153225
Atom2 -3.573897 -7.147794 8.022764
Atom3 3.427963 6.855926 -9.112496
Atom4 3.226685 6.453371 8.713869
4
Kinetic Energy: 0.498447, Potential Energy: -0.000000, Total Energy: 0.498447
Atom1 -3.889036 -7.778072 -7.313073
Atom2 -3.657858 -7.315717 8.198770
Atom3 3.507106 7.014213 -9.312917
Atom4 3.300141 6.600282 8.900144
4
Kinetic Energy: 0.498447, Potential Energy: -0.000000, Total Energy: 0.498447
Atom1 -3.979376 -7.958751 -7.472920
Atom2 -3.741820 -7.483639 8.374776
Atom3 3.586250 7.172500 -9.513338
Atom4 3.373597 6.747193 9.086418
4
Kinetic Energy: 0.498447, Potential Energy: -0.000000, Total Energy: 0.498447
Atom1 -4.069715 -8.139430 -7.632768
Atom2 -3.825781 -7.651562 8.550782
Atom3 3.665393 7.330787 -9.713759
Atom4 3.447052 6.894104 9.272693
4
Kinetic Energy: 0.498447, Potential Energy: -0.000000, Total Energy: 0.498447
Atom1 -4.160055 -8.320110 -7.792616
Atom2 -3.909742 -7.819484 8.726788
Atom3 3.744537 7.489074 -9.914180
Atom4 3.520508 7.041015 9.458967
4
Kinetic Energy: 0.498447, Potential Energy: -0.000000, Total Energy: 0.498447
Atom1 -4.250394 -8.500789 -7.952463
Atom2 -3.993703 -7.987406 8.902794
Atom3 3.823680 7.647361 -10.114602
Atom4 3.593963 7.187926 9.645242
4
Kinetic Energy: 0.498447, Potential Energy: -0.000000, Total Energy: 0.498447
Atom1 -4.340734 -8.681468 -8.112311
Atom2 -4.077664 -8.155329 9.078801
Atom3 3.902824 7.805648 -10.315023
Atom4 3.667419 7.334837 9.831516
4
Kinetic Energy: 0.498447, Potential Energy: -0.000000, Total Energy: 0.498447
Atom1 -4.431074 -8.862148 -8.272159
Atom2 -4.161626 -8.323251 9.254807
Atom3 3.981967 7.963935 -10.515444
Atom4 3.740874 7.481748 10.017791
4
Kinetic Energy: 0.498447, Potential Energy: -0.000000, Total Energy: 0.498447
Atom1 -4.521413 -9.042827 -8.432006
Atom2 -4.245587 -8.491174 9.430813
Atom3 4.061111 8.122222 -10.715865
Atom4 3.814330 7.628659 10.204065
4
Kinetic Energy: 0.498447, Potential Energy: -0.000000, Total Energy: 0.498447
Atom1 -4.611753 -9.223506 -8.591854
Atom2 -4.329548 -8.659096 9.606819
Atom3 4.140254 8.280509 -10.916286
Atom4 3.887785 7.775570 10.390340
4
Kinetic Energy: 0.498447, Potential Energy: -0.000000, Total Energy: 0.498447
Atom1 -4.702093 -9.404185 -8.751702
Atom2 -4.413509 -8.827019 9.782825
Atom3 4.219398 8.438796 -11.116707
Atom4 3.961241 7.922481 10.576614
4
Kinetic Energy: 0.498447, Potential Energy: -0.000000, Total Energy: 0.498447
Atom1 -4.792432 -9.584865 -8.911549
Atom2 -4.497470 -8.994941 9.958831
Atom3 4.298541 8.597083 -11.317128
Atom4 4.034696 8.069392 10.762889
4
Kinetic Energy: 0.498447, Potential Energy: -0.000000, Total Energy: 0.498447
Atom1 -4.882772 -9.765544 -9.071397
Atom2 -4.581432 -9.162863 10.134837
Atom3 4.377685 8.755370 -11.517549
Atom4 4.108152 8.216303 10.949163
4
Kinetic Energy: 0.498447, Potential Energy: -0.000000, Total Energy: 0.498447
Atom1 -4.973112 -9.946223 -9.231245
Atom2 -4.665393 -9.330786 10.310843
Atom3 4.456829 8.913657 -11.717970
Atom4 4.181607 8.363214 11.135438
4
Kinetic Energy: 0.498447, Potential Energy: -0.000000, Total Energy: 0.498447
Atom1 -5.063451 -10.126902 -9.391092
Atom2 -4.749354 -9.498708 10.486849
Atom3 4.535972 9.071944 -11.918391
Atom4 4.255063 8.510125 11.321712
4
Kinetic Energy: 0.498447, Potential Energy: -0.000000, Total Energy: 0.498447
Atom1 -5.153791 -10.307582 -9.550940
Atom2 -4.833315 -9.666631 10.662855
Atom3 4.615116 9.230231 -12.118812
Atom4 4.328518 8.657036 11.507987
4
Kinetic Energy: 0.498447, Potential Energy: -0.000000, Total Energy: 0.498447
Atom1 -5.244130 -10.488261 -9.710788
Atom2 -4.917277 -9.834553 10.838861
Atom3 4.694259 9.388518 -12.319233
Atom4 4.401974 8.803947 11.694261
4
Kinetic Energy: 0.498447, Potential Energy: -0.000000, Total Energy: 0.498447
Atom1 -5.334470 -10.668940 -9.870635
Atom2 -5.001238 -10.002475 11.014867
Atom3 4.773403 9.546805 -12.519654
Atom4 4.475429 8.950858 11.880536
4
Kinetic Energy: 0.498447, Potential Energy: -0.000000, Total Energy: 0.498447
Atom1 -5.424810 -10.849619 -10.030483
Atom2 -5.085199 -10.170398 11.190873
Atom3 4.852546 9.705092 -12.720075
Atom4 4.548885 9.097769 12.066810
4
Kinetic Energy: 0.498447, Potential Energy: -0.000000, Total Energy: 0.498447
Atom1 -5.515149 -11.030299 -10.190330
Atom2 -5.169160 -10.338320 11.366879
Atom3 4.931690 9.863379 -12.920496
Atom4 4.622340 9.244680 12.253085
4
Kinetic Energy: 0.498447, Potential Energy: -0.000000, Total Energy: 0.498447
Atom1 -5.605489 -11.210978 -10.350178
Atom2 -5.253121 -10.506243 11.542885
Atom3 5.010833 10.021666 -13.120917
Atom4 4.695796 9.391591 12.439359
4
Kinetic Energy: 0.498447, Potential Energy: -0.000000, Total Energy: 0.498447
Atom1 -5.695829 -11.391657 -10.510026
Atom2 -5.337083 -10.674165 11.718891
Atom3 5.089977 10.179953 -13.321338
Atom4 4.769251 9.538502 12.625634
4
Kinetic Energy: 0.498447, Potential Energy: -0.000000, Total Energy: 0.498447
Atom1 -5.786168 -11.572336 -10.669873
Atom2 -5.421044 -10.842088 11.894897
Atom3 5.169120 10.338240 -13.521759
Atom4 4.842707 9.685413 12.811908
4
Kinetic Energy: 0.498447, Potential Energy: -0.000000, Total Energy: 0.498447
Atom1 -5.876508 -11.753016 -10.829721
Atom2 -5.505005 -11.010010 12.070903
Atom3 5.248264 10.496527 -13.722180
Atom4 4.916162 9.832324 12.998183
4
Kinetic Energy: 0.498447, Potential Energy: -0.000000, Total Energy: 0.498447
Atom1 -5.966847 -11.933695 -10.989569
Atom2 -5.588966 -11.177932 12.246909
Atom3 5.327407 10.654814 -13.922601
Atom4 4.989618 9.979235 13.184457
4
Kinetic Energy: 0.498447, Potential Energy: -0.000000, Total Energy: 0.498447
Atom1 -6.057187 -12.114374 -11.149416
Atom2 -5.672927 -11.345855 12.422915
Atom3 5.406551 10.813101 -14.123023
Atom4 5.063073 10.126146 13.370732
4
Kinetic Energy: 0.498447, Potential Energy: -0.000000, Total Energy: 0.498447
Atom1 -6.147527 -12.295053 -11.309264
Atom2 -5.756889 -11.513777 12.598921
Atom3 5.485694 10.971388 -14.323444
Atom4 5.136529 10.273057 13.557006
4
Kinetic Energy: 0.498447, Potential Energy: -0.000000, Total Energy: 0.498447
Atom1 -6.237866 -12.475733 -11.469112
Atom2 -5.840850 -11.681700 12.774927
Atom3 5.564838 11.129675 -14.523865
Atom4 5.209984 10.419968 13.743281
4
Kinetic Energy: 0.498447, Potential Energy: -0.000000, Total Energy: 0.498447
Atom1 -6.328206 -12.656412 -11.628959
Atom2 -5.924811 -11.849622 12.950934
Atom3 5.643981 11.287963 -14.724286
Atom4 5.283440 10.566880 13.929555
4
Kinetic Energy: 0.498447, Potential Energy: -0.000000, Total Energy: 0.498447
Atom1 -6.418546 -12.837091 -11.788807
Atom2 -6.008772 -12.017544 13.126940
Atom3 5.723125 11.446250 -14.924707
Atom4 5.356895 10.713791 14.115830
4
Kinetic Energy: 0.498447, Potential Energy: -0.000000, Total Energy: 0.498447
Atom1 -6.508885 -13.017770 -11.948655
Atom2 -6.092733 -12.185467 13.302946
Atom3 5.802268 11.604537 -15.125128
Atom4 5.430351 10.860702 14.302104
4
Kinetic Energy: 0.498447, Potential Energy: -0.000000, Total Energy: 0.498447
Atom1 -6.599225 -13.198450 -12.108502
Atom2 -6.176695 -12.353389 13.478952
Atom3 5.881412 11.762824 -15.325549
Atom4 5.503806 11.007613 14.488379
4
Kinetic Energy: 0.498447, Potential Energy: -0.000000, Total Energy: 0.498447
Atom1 -6.689565 -13.379129 -12.268350
Atom2 -6.260656 -12.521312 13.654958
Atom3 5.960555 11.921111 -15.525970
Atom4 5.577262 11.154524 14.674653
4
Kinetic Energy: 0.498447, Potential Energy: -0.000000, Total Energy: 0.498447
Atom1 -6.779904 -13.559808 -12.428198
Atom2 -6.344617 -12.689234 13.830964
Atom3 6.039699 12.079398 -15.726391
Atom4 5.650717 11.301435 14.860928
4
Kinetic Energy: 0.498447, Potential Energy: -0.000000, Total Energy: 0.498447
Atom1 -6.870244 -13.740488 -12.588045
Atom2 -6.428578 -12.857156 14.006970
Atom3 6.118842 12.237685 -15.926812
Atom4 5.724173 11.448346 15.047202
4
Kinetic Energy: 0.498447, Potential Energy: -0.000000, Total Energy: 0.498447
Atom1 -6.960583 -13.921167 -12.747893
Atom2 -6.512539 -13.025079 14.182976
Atom3 6.197986 12.395972 -16.127233
Atom4 5.797628 11.595257 15.233477
4
Kinetic Energy: 0.498447, Potential Energy: -0.000000, Total Energy: 0.498447
Atom1 -7.050923 -14.101846 -12.907741
Atom2 -6.596501 -13.193001 14.358982
Atom3 6.277129 12.554259 -16.327654
Atom4 5.871084 11.742168 15.419751
4
Kinetic Energy: 0.498447, Potential Energy: -0.000000, Total Energy: 0.498447
Atom1 -7.141263 -14.282525 -13.067588
Atom2 -6.680462 -13.360924 14.534988
Atom3 6.356273 12.712546 -16.528075
Atom4 5.944539 11.889079 15.606026
4
Kinetic Energy: 0.498447, Potential Energy: -0.000000, Total Energy: 0.498447
Atom1 -7.231602 -14.463205 -13.227436
Atom2 -6.764423 -13.528846 14.710994
Atom3 6.435416 12.870833 -16.728496
Atom4 6.017995 12.035990 15.792300
4
Kinetic Energy: 0.498447, Potential Energy: -0.000000, Total Energy: 0.498447
Atom1 -7.321942 -14.643884 -13.387284
Atom2 -6.848384 -13.696769 14.887000
Atom3 6.514560 13.029120 -16.928917
Atom4 6.091450 12.182901 15.978575
4
Kinetic Energy: 0.498447, Potential Energy: -0.000000, Total Energy: 0.498447
Atom1 -7.412282 -14.824563 -13.547131
Atom2 -6.932345 -13.864691 15.063006
Atom3 6.593703 13.187407 -17.129338
Atom4 6.164906 12.329812 16.164849
4
Kinetic Energy: 0.498447, Potential Energy: -0.000000, Total Energy: 0.498447
Atom1 -7.502621 -15.005242 -13.706979
Atom2 -7.016307 -14.032613 15.239012
Atom3 6.672847 13.345694 -17.329759
Atom4 6.238361 12.476723 16.351124
4
Kinetic Energy: 0.498447, Potential Energy: -0.000000, Total Energy: 0.498447
Atom1 -7.592961 -15.185922 -13.866827
Atom2 -7.100268 -14.200536 15.415018
Atom3 6.751990 13.503981 -17.530180
Atom4 6.311817 12.623634 16.537398
4
Kinetic Energy: 0.498447, Potential Energy: -0.000000, Total Energy: 0.498447
Atom1 -7.683300 -15.366601 -14.026674
Atom2 -7.184229 -14.368458 15.591024
Atom3 6.831134 13.662268 -17.730601
Atom4 6.385272 12.770545 16.723673
4
Kinetic Energy: 0.498447, Potential Energy: -0.000000, Total Energy: 0.498447
Atom1 -7.773640 -15.547280 -14.186522
Atom2 -7.268190 -14.536381 15.767030
Atom3 6.910278 13.820555 -17.931023
Atom4 6.458728 12.917456 16.909947
4
Kinetic Energy: 0.498447, Potential Energy: -0.000000, Total Energy: 0.498447
Atom1 -7.863980 -15.727959 -14.346369
Atom2 -7.352152 -14.704303 15.943036
Atom3 6.989421 13.978842 -18.131444
Atom4 6.532183 13.064367 17.096222
4
Kinetic Energy: 0.498447, Potential Energy: -0.000000, Total Energy: 0.498447
Atom1 -7.954319 -15.908639 -14.506217
Atom2 -7.436113 -14.872225 16.119042
Atom3 7.068565 14.137129 -18.331865
Atom4 6.605639 13.211278 17.282496
4
Kinetic Energy: 0.498447, Potential Energy: -0.000000, Total Energy: 0.498447
Atom1 -8.044659 -16.089318 -14.666065
Atom2 -7.520074 -15.040148 16.295048
Atom3 7.147708 14.295416 -18.532286
Atom4 6.679094 13.358189 17.468771
4
Kinetic Energy: 0.498447, Potential Energy: -0.000000, Total Energy: 0.498447
Atom1 -8.134999 -16.269997 -14.825912
Atom2 -7.604035 -15.208070 16.471054
Atom3 7.226852 14.453703 -18.732707
Atom4 6.752550 13.505100 17.655045
4
Kinetic Energy: 0.498447, Potential Energy: -0.000000, Total Energy: 0.498447
Atom1 -8.225338 -16.450676 -14.985760
Atom2 -7.687996 -15.375993 16.647060
Atom3 7.305995 14.611990 -18.933128
Atom4 6.826005 13.652011 17.841320
4
Kinetic Energy: 0.498447, Potential Energy: -0.000000, Total Energy: 0.498447
Atom1 -8.315678 -16.631356 -15.145608
Atom2 -7.771958 -15.543915 16.823067
Atom3 7.385139 14.770277 -19.133549
Atom4 6.899461 13.798922 18.027594
4
Kinetic Energy: 0.498447, Potential Energy: -0.000000, Total Energy: 0.498447
Atom1 -8.406017 -16.812035 -15.305455
Atom2 -7.855919 -15.711838 16.999073
Atom3 7.464282 14.928564 -19.333970
Atom4 6.972916 13.945833 18.213869
4
Kinetic Energy: 0.498447, Potential Energy: -0.000000, Total Energy: 0.498447
Atom1 -8.496357 -16.992714 -15.465303
Atom2 -7.939880 -15.879760 17.175079
Atom3 7.543426 15.086851 -19.534391
Atom4 7.046372 14.092744 18.400143
4
Kinetic Energy: 0.498447, Potential Energy: -0.000000, Total Energy: 0.498447
Atom1 -8.586697 -17.173393 -15.625151
Atom2 -8.023841 -16.047682 17.351085
Atom3 7.622569 15.245138 -19.734812
Atom4 7.119827 14.239655 18.586418
4
Kinetic Energy: 0.498447, Potential Energy: -0.000000, Total Energy: 0.498447
Atom1 -8.677036 -17.354073 -15.784998
Atom2 -8.107802 -16.215605 17.527091
Atom3 7.701713 15.403425 -19.935233
Atom4 7.193283 14.386566 18.772692
4
Kinetic Energy: 0.498447, Potential Energy: -0.000000, Total Energy: 0.498447
Atom1 -8.767376 -17.534752 -15.944846
Atom2 -8.191764 -16.383527 17.703097
Atom3 7.780856 15.561712 -20.135654
Atom4 7.266739 14.533477 18.958967
4
Kinetic Energy: 0.498447, Potential Energy: -0.000000, Total Energy: 0.498447
Atom1 -8.857716 -17.715431 -16.104694
Atom2 -8.275725 -16.551450 17.879103
Atom3 7.860000 15.719999 -20.336075
Atom4 7.340194 14.680388 19.145241
