3
Kinetic Energy: 0.545098, Potential Energy: -0.098090, Total Energy: 0.447008
Atom1 -0.000017 -0.000035 -0.041197
Atom2 0.000011 0.000022 0.341184
Atom3 0.100007 0.200013 -0.299987
3
Kinetic Energy: 0.476039, Potential Energy: -0.007618, Total Energy: 0.468420
Atom1 -0.075816 -0.151631 -0.248872
Atom2 0.000111 0.000222 0.728226
Atom3 0.175705 0.351410 -0.479354
3
Kinetic Energy: 0.469075, Potential Energy: -0.000711, Total Energy: 0.468364
Atom1 -0.146593 -0.293186 -0.450357
Atom2 0.000100 0.000200 1.110080
Atom3 0.246493 0.492986 -0.659723
3
Kinetic Energy: 0.468487, Potential Energy: -0.000125, Total Energy: 0.468362
Atom1 -0.216437 -0.432873 -0.652402
Atom2 0.000086 0.000173 1.491871
Atom3 0.316350 0.632700 -0.839469
3
Kinetic Energy: 0.468394, Potential Energy: -0.000032, Total Energy: 0.468362
Atom1 -0.286178 -0.572356 -0.854485
Atom2 0.000073 0.000146 1.873657
Atom3 0.386105 0.772210 -1.019172
3
Kinetic Energy: 0.468372, Potential Energy: -0.000011, Total Energy: 0.468362
Atom1 -0.355901 -0.711801 -1.056572
Atom2 0.000059 0.000119 2.255443
Atom3 0.455841 0.911683 -1.198871
3
Kinetic Energy: 0.468366, Potential Energy: -0.000004, Total Energy: 0.468362
Atom1 -0.425618 -0.851237 -1.258660
Atom2 0.000046 0.000091 2.637228
Atom3 0.525573 1.051145 -1.378568
3
Kinetic Energy: 0.468364, Potential Energy: -0.000002, Total Energy: 0.468362
Atom1 -0.495334 -0.990669 -1.460747
Atom2 0.000032 0.000064 3.019013
Atom3 0.595302 1.190605 -1.558265
3
Kinetic Energy: 0.468363, Potential Energy: -0.000001, Total Energy: 0.468362
Atom1 -0.565050 -1.130100 -1.662835
Atom2 0.000019 0.000037 3.400798
Atom3 0.665031 1.330063 -1.737962
3
Kinetic Energy: 0.468362, Potential Energy: -0.000000, Total Energy: 0.468362
Atom1 -0.634765 -1.269530 -1.864923
Atom2 0.000005 0.000010 3.782582
Atom3 0.734760 1.469520 -1.917659
3
Kinetic Energy: 0.468362, Potential Energy: -0.000000, Total Energy: 0.468362
Atom1 -0.704480 -1.408961 -2.067011
Atom2 -0.000009 -0.000017 4.164367
Atom3 0.804489 1.608978 -2.097356
3
Kinetic Energy: 0.468362, Potential Energy: -0.000000, Total Energy: 0.468362
Atom1 -0.774195 -1.548391 -2.269099
Atom2 -0.000022 -0.000044 4.546152
Atom3 0.874218 1.748435 -2.277053
3
Kinetic Energy: 0.468362, Potential Energy: -0.000000, Total Energy: 0.468362
Atom1 -0.843910 -1.687821 -2.471187
Atom2 -0.000036 -0.000071 4.927937
Atom3 0.943946 1.887892 -2.456750
3
Kinetic Energy: 0.468362, Potential Energy: -0.000000, Total Energy: 0.468362
Atom1 -0.913625 -1.827251 -2.673275
Atom2 -0.000049 -0.000099 5.309722
Atom3 1.013675 2.027350 -2.636447
3
Kinetic Energy: 0.468362, Potential Energy: -0.000000, Total Energy: 0.468362
Atom1 -0.983340 -1.966681 -2.875363
Atom2 -0.000063 -0.000126 5.691507
Atom3 1.083403 2.166807 -2.816144
3
Kinetic Energy: 0.468362, Potential Energy: -0.000000, Total Energy: 0.468362
Atom1 -1.053055 -2.106111 -3.077451
Atom2 -0.000076 -0.000153 6.073292
Atom3 1.153132 2.306264 -2.995841
3
Kinetic Energy: 0.468362, Potential Energy: -0.000000, Total Energy: 0.468362
Atom1 -1.122770 -2.245541 -3.279539
Atom2 -0.000090 -0.000180 6.455077
Atom3 1.222861 2.445721 -3.175538
3
Kinetic Energy: 0.468362, Potential Energy: -0.000000, Total Energy: 0.468362
Atom1 -1.192485 -2.384971 -3.481627
Atom2 -0.000104 -0.000207 6.836862
Atom3 1.292589 2.585178 -3.355235
3
Kinetic Energy: 0.468362, Potential Energy: -0.000000, Total Energy: 0.468362
Atom1 -1.262200 -2.524401 -3.683715
Atom2 -0.000117 -0.000234 7.218647
Atom3 1.362318 2.724635 -3.534932
3
Kinetic Energy: 0.468362, Potential Energy: -0.000000, Total Energy: 0.468362
Atom1 -1.331915 -2.663831 -3.885803
Atom2 -0.000131 -0.000262 7.600432
Atom3 1.432046 2.864092 -3.714629
3
Kinetic Energy: 0.468362, Potential Energy: -0.000000, Total Energy: 0.468362
Atom1 -1.401630 -2.803261 -4.087891
Atom2 -0.000144 -0.000289 7.982217
Atom3 1.501775 3.003550 -3.894326
3
Kinetic Energy: 0.468362, Potential Energy: -0.000000, Total Energy: 0.468362
Atom1 -1.471345 -2.942691 -4.289979
Atom2 -0.000158 -0.000316 8.364002
Atom3 1.571503 3.143007 -4.074023
3
Kinetic Energy: 0.468362, Potential Energy: -0.000000, Total Energy: 0.468362
Atom1 -1.541060 -3.082121 -4.492067
Atom2 -0.000172 -0.000343 8.745787
Atom3 1.641232 3.282464 -4.253720
3
Kinetic Energy: 0.468362, Potential Energy: -0.000000, Total Energy: 0.468362
Atom1 -1.610775 -3.221551 -4.694155
Atom2 -0.000185 -0.000370 9.127572
Atom3 1.710961 3.421921 -4.433417
3
Kinetic Energy: 0.468362, Potential Energy: -0.000000, Total Energy: 0.468362
Atom1 -1.680490 -3.360981 -4.896243
Atom2 -0.000199 -0.000397 9.509356
Atom3 1.780689 3.561378 -4.613114
3
Kinetic Energy: 0.468362, Potential Energy: -0.000000, Total Energy: 0.468362
Atom1 -1.750205 -3.500411 -5.098331
Atom2 -0.000212 -0.000424 9.891141
Atom3 1.850418 3.700835 -4.792811
3
Kinetic Energy: 0.468362, Potential Energy: -0.000000, Total Energy: 0.468362
Atom1 -1.819920 -3.639841 -5.300419
Atom2 -0.000226 -0.000452 10.272926
Atom3 1.920146 3.840292 -4.972508
3
Kinetic Energy: 0.468362, Potential Energy: -0.000000, Total Energy: 0.468362
Atom1 -1.889635 -3.779271 -5.502507
Atom2 -0.000239 -0.000479 10.654711
Atom3 1.989875 3.979750 -5.152204
3
Kinetic Energy: 0.468362, Potential Energy: -0.000000, Total Energy: 0.468362
Atom1 -1.959350 -3.918701 -5.704595
Atom2 -0.000253 -0.000506 11.036496
Atom3 2.059603 4.119207 -5.331901
3
Kinetic Energy: 0.468362, Potential Energy: -0.000000, Total Energy: 0.468362
Atom1 -2.029065 -4.058131 -5.906683
Atom2 -0.000267 -0.000533 11.418281
Atom3 2.129332 4.258664 -5.511598
3
Kinetic Energy: 0.468362, Potential Energy: -0.000000, Total Energy: 0.468362
Atom1 -2.098780 -4.197561 -6.108771
Atom2 -0.000280 -0.000560 11.800066
Atom3 2.199061 4.398121 -5.691295
3
Kinetic Energy: 0.468362, Potential Energy: -0.000000, Total Energy: 0.468362
Atom1 -2.168495 -4.336991 -6.310859
Atom2 -0.000294 -0.000587 12.181851
Atom3 2.268789 4.537578 -5.870992
3
Kinetic Energy: 0.468362, Potential Energy: -0.000000, Total Energy: 0.468362
Atom1 -2.238210 -4.476421 -6.512947
Atom2 -0.000307 -0.000615 12.563636
Atom3 2.338518 4.677035 -6.050689
3
Kinetic Energy: 0.468362, Potential Energy: -0.000000, Total Energy: 0.468362
Atom1 -2.307925 -4.615851 -6.715035
Atom2 -0.000321 -0.000642 12.945421
Atom3 2.408246 4.816492 -6.230386
3
Kinetic Energy: 0.468362, Potential Energy: -0.000000, Total Energy: 0.468362
Atom1 -2.377640 -4.755281 -6.917123
Atom2 -0.000334 -0.000669 13.327206
Atom3 2.477975 4.955950 -6.410083
3
Kinetic Energy: 0.468362, Potential Energy: -0.000000, Total Energy: 0.468362
Atom1 -2.447355 -4.894711 -7.119211
Atom2 -0.000348 -0.000696 13.708991
Atom3 2.547703 5.095407 -6.589780
3
Kinetic Energy: 0.468362, Potential Energy: -0.000000, Total Energy: 0.468362
Atom1 -2.517070 -5.034141 -7.321298
Atom2 -0.000362 -0.000723 14.090776
Atom3 2.617432 5.234864 -6.769477
3
Kinetic Energy: 0.468362, Potential Energy: -0.000000, Total Energy: 0.468362
Atom1 -2.586785 -5.173571 -7.523386
Atom2 -0.000375 -0.000750 14.472561
Atom3 2.687161 5.374321 -6.949174
3
Kinetic Energy: 0.468362, Potential Energy: -0.000000, Total Energy: 0.468362
Atom1 -2.656500 -5.313001 -7.725474
Atom2 -0.000389 -0.000777 14.854346
Atom3 2.756889 5.513778 -7.128871
3
Kinetic Energy: 0.468362, Potential Energy: -0.000000, Total Energy: 0.468362
Atom1 -2.726215 -5.452431 -7.927562
Atom2 -0.000402 -0.000805 15.236130
Atom3 2.826618 5.653235 -7.308568
3
Kinetic Energy: 0.468362, Potential Energy: -0.000000, Total Energy: 0.468362
Atom1 -2.795930 -5.591861 -8.129650
Atom2 -0.000416 -0.000832 15.617915
Atom3 2.896346 5.792692 -7.488265
3
Kinetic Energy: 0.468362, Potential Energy: -0.000000, Total Energy: 0.468362
Atom1 -2.865645 -5.731291 -8.331738
Atom2 -0.000429 -0.000859 15.999700
Atom3 2.966075 5.932150 -7.667962
3
Kinetic Energy: 0.468362, Potential Energy: -0.000000, Total Energy: 0.468362
Atom1 -2.935360 -5.870721 -8.533826
Atom2 -0.000443 -0.000886 16.381485
Atom3 3.035803 6.071607 -7.847659
3
Kinetic Energy: 0.468362, Potential Energy: -0.000000, Total Energy: 0.468362
Atom1 -3.005075 -6.010151 -8.735914
Atom2 -0.000457 -0.000913 16.763270
Atom3 3.105532 6.211064 -8.027356
3
Kinetic Energy: 0.468362, Potential Energy: -0.000000, Total Energy: 0.468362
Atom1 -3.074790 -6.149581 -8.938002
Atom2 -0.000470 -0.000940 17.145055
Atom3 3.175260 6.350521 -8.207053
3
Kinetic Energy: 0.468362, Potential Energy: -0.000000, Total Energy: 0.468362
Atom1 -3.144505 -6.289011 -9.140090
Atom2 -0.000484 -0.000968 17.526840
Atom3 3.244989 6.489978 -8.386750
3
Kinetic Energy: 0.468362, Potential Energy: -0.000000, Total Energy: 0.468362
Atom1 -3.214220 -6.428441 -9.342178
Atom2 -0.000497 -0.000995 17.908625
Atom3 3.314718 6.629435 -8.566447
3
Kinetic Energy: 0.468362, Potential Energy: -0.000000, Total Energy: 0.468362
Atom1 -3.283935 -6.567871 -9.544266
Atom2 -0.000511 -0.001022 18.290410
Atom3 3.384446 6.768892 -8.746144
3
Kinetic Energy: 0.468362, Potential Energy: -0.000000, Total Energy: 0.468362
Atom1 -3.353650 -6.707301 -9.746354
Atom2 -0.000524 -0.001049 18.672195
Atom3 3.454175 6.908350 -8.925841
3
Kinetic Energy: 0.468362, Potential Energy: -0.000000, Total Energy: 0.468362
Atom1 -3.423365 -6.846731 -9.948442
Atom2 -0.000538 -0.001076 19.053980
Atom3 3.523903 7.047807 -9.105538
3
Kinetic Energy: 0.468362, Potential Energy: -0.000000, Total Energy: 0.468362
Atom1 -3.493080 -6.986161 -10.150530
Atom2 -0.000552 -0.001103 19.435765
Atom3 3.593632 7.187264 -9.285235
3
Kinetic Energy: 0.468362, Potential Energy: -0.000000, Total Energy: 0.468362
Atom1 -3.562795 -7.125591 -10.352618
Atom2 -0.000565 -0.001130 19.817550
Atom3 3.663360 7.326721 -9.464932
3
Kinetic Energy: 0.468362, Potential Energy: -0.000000, Total Energy: 0.468362
Atom1 -3.632510 -7.265021 -10.554706
Atom2 -0.000579 -0.001158 20.199335
Atom3 3.733089 7.466178 -9.644629
3
Kinetic Energy: 0.468362, Potential Energy: -0.000000, Total Energy: 0.468362
Atom1 -3.702225 -7.404450 -10.756794
Atom2 -0.000592 -0.001185 20.581120
Atom3 3.802818 7.605635 -9.824326
3
Kinetic Energy: 0.468362, Potential Energy: -0.000000, Total Energy: 0.468362
Atom1 -3.771940 -7.543880 -10.958882
Atom2 -0.000606 -0.001212 20.962904
Atom3 3.872546 7.745092 -10.004023
3
Kinetic Energy: 0.468362, Potential Energy: -0.000000, Total Energy: 0.468362
Atom1 -3.841655 -7.683310 -11.160970
Atom2 -0.000620 -0.001239 21.344689
Atom3 3.942275 7.884550 -10.183720
3
Kinetic Energy: 0.468362, Potential Energy: -0.000000, Total Energy: 0.468362
Atom1 -3.911370 -7.822740 -11.363058
Atom2 -0.000633 -0.001266 21.726474
Atom3 4.012003 8.024007 -10.363416
3
Kinetic Energy: 0.468362, Potential Energy: -0.000000, Total Energy: 0.468362
Atom1 -3.981085 -7.962170 -11.565146
Atom2 -0.000647 -0.001293 22.108259
Atom3 4.081732 8.163464 -10.543113
3
Kinetic Energy: 0.468362, Potential Energy: -0.000000, Total Energy: 0.468362
Atom1 -4.050800 -8.101600 -11.767234
Atom2 -0.000660 -0.001320 22.490044
Atom3 4.151460 8.302921 -10.722810
3
Kinetic Energy: 0.468362, Potential Energy: -0.000000, Total Energy: 0.468362
Atom1 -4.120515 -8.241030 -11.969322
Atom2 -0.000674 -0.001348 22.871829
Atom3 4.221189 8.442378 -10.902507
3
Kinetic Energy: 0.468362, Potential Energy: -0.000000, Total Energy: 0.468362
Atom1 -4.190230 -8.380460 -12.171410
Atom2 -0.000687 -0.001375 23.253614
Atom3 4.290918 8.581835 -11.082204
3
Kinetic Energy: 0.468362, Potential Energy: -0.000000, Total Energy: 0.468362
Atom1 -4.259945 -8.519890 -12.373498
Atom2 -0.000701 -0.001402 23.635399
Atom3 4.360646 8.721292 -11.261901
3
Kinetic Energy: 0.468362, Potential Energy: -0.000000, Total Energy: 0.468362
Atom1 -4.329660 -8.659320 -12.575586
Atom2 -0.000715 -0.001429 24.017184
Atom3 4.430375 8.860749 -11.441598
3
Kinetic Energy: 0.468362, Potential Energy: -0.000000, Total Energy: 0.468362
Atom1 -4.399375 -8.798750 -12.777674
Atom2 -0.000728 -0.001456 24.398969
Atom3 4.500103 9.000207 -11.621295
3
Kinetic Energy: 0.468362, Potential Energy: -0.000000, Total Energy: 0.468362
Atom1 -4.469090 -8.938180 -12.979762
Atom2 -0.000742 -0.001483 24.780754
Atom3 4.569832 9.139664 -11.800992
3
Kinetic Energy: 0.468362, Potential Energy: -0.000000, Total Energy: 0.468362
Atom1 -4.538805 -9.077610 -13.181850
Atom2 -0.000755 -0.001511 25.162539
Atom3 4.639560 9.279121 -11.980689
3
Kinetic Energy: 0.468362, Potential Energy: -0.000000, Total Energy: 0.468362
Atom1 -4.608520 -9.217040 -13.383937
Atom2 -0.000769 -0.001538 25.544324
Atom3 4.709289 9.418578 -12.160386
3
Kinetic Energy: 0.468362, Potential Energy: -0.000000, Total Energy: 0.468362
Atom1 -4.678235 -9.356470 -13.586025
Atom2 -0.000782 -0.001565 25.926109
Atom3 4.779018 9.558035 -12.340083
3
Kinetic Energy: 0.468362, Potential Energy: -0.000000, Total Energy: 0.468362
Atom1 -4.747950 -9.495900 -13.788113
Atom2 -0.000796 -0.001592 26.307893
Atom3 4.848746 9.697492 -12.519780
3
Kinetic Energy: 0.468362, Potential Energy: -0.000000, Total Energy: 0.468362
Atom1 -4.817665 -9.635330 -13.990201
Atom2 -0.000810 -0.001619 26.689678
Atom3 4.918475 9.836949 -12.699477
3
Kinetic Energy: 0.468362, Potential Energy: -0.000000, Total Energy: 0.468362
Atom1 -4.887380 -9.774760 -14.192289
Atom2 -0.000823 -0.001646 27.071463
Atom3 4.988203 9.976407 -12.879174
3
Kinetic Energy: 0.468362, Potential Energy: -0.000000, Total Energy: 0.468362
Atom1 -4.957095 -9.914190 -14.394377
Atom2 -0.000837 -0.001673 27.453248
Atom3 5.057932 10.115864 -13.058871
3
Kinetic Energy: 0.468362, Potential Energy: -0.000000, Total Energy: 0.468362
Atom1 -5.026810 -10.053620 -14.596465
Atom2 -0.000850 -0.001701 27.835033
Atom3 5.127660 10.255321 -13.238568
3
Kinetic Energy: 0.468362, Potential Energy: -0.000000, Total Energy: 0.468362
Atom1 -5.096525 -10.193050 -14.798553
Atom2 -0.000864 -0.001728 28.216818
Atom3 5.197389 10.394778 -13.418265
3
Kinetic Energy: 0.468362, Potential Energy: -0.000000, Total Energy: 0.468362
Atom1 -5.166240 -10.332480 -15.000641
Atom2 -0.000877 -0.001755 28.598603
Atom3 5.267118 10.534235 -13.597962
3
Kinetic Energy: 0.468362, Potential Energy: -0.000000, Total Energy: 0.468362
Atom1 -5.235955 -10.471910 -15.202729
Atom2 -0.000891 -0.001782 28.980388
Atom3 5.336846 10.673692 -13.777659
3
Kinetic Energy: 0.468362, Potential Energy: -0.000000, Total Energy: 0.468362
Atom1 -5.305670 -10.611340 -15.404817
Atom2 -0.000905 -0.001809 29.362173
Atom3 5.406575 10.813149 -13.957356
3
Kinetic Energy: 0.468362, Potential Energy: -0.000000, Total Energy: 0.468362
Atom1 -5.375385 -10.750770 -15.606905
Atom2 -0.000918 -0.001836 29.743958
Atom3 5.476303 10.952607 -14.137053
3
Kinetic Energy: 0.468362, Potential Energy: -0.000000, Total Energy: 0.468362
Atom1 -5.445100 -10.890200 -15.808993
Atom2 -0.000932 -0.001864 30.125743
Atom3 5.546032 11.092064 -14.316750
3
Kinetic Energy: 0.468362, Potential Energy: -0.000000, Total Energy: 0.468362
Atom1 -5.514815 -11.029630 -16.011081
Atom2 -0.000945 -0.001891 30.507528
Atom3 5.615760 11.231521 -14.496447
3
Kinetic Energy: 0.468362, Potential Energy: -0.000000, Total Energy: 0.468362
Atom1 -5.584530 -11.169060 -16.213169
Atom2 -0.000959 -0.001918 30.889313
Atom3 5.685489 11.370978 -14.676144
3
Kinetic Energy: 0.468362, Potential Energy: -0.000000, Total Energy: 0.468362
Atom1 -5.654245 -11.308490 -16.415257
Atom2 -0.000973 -0.001945 31.271098
Atom3 5.755218 11.510435 -14.855841
3
Kinetic Energy: 0.468362, Potential Energy: -0.000000, Total Energy: 0.468362
Atom1 -5.723960 -11.447920 -16.617345
Atom2 -0.000986 -0.001972 31.652883
Atom3 5.824946 11.649892 -15.035538
3
Kinetic Energy: 0.468362, Potential Energy: -0.000000, Total Energy: 0.468362
Atom1 -5.793675 -11.587350 -16.819433
Atom2 -0.001000 -0.001999 32.034667
Atom3 5.894675 11.789349 -15.215235
3
Kinetic Energy: 0.468362, Potential Energy: -0.000000, Total Energy: 0.468362
Atom1 -5.863390 -11.726780 -17.021521
Atom2 -0.001013 -0.002026 32.416452
Atom3 5.964403 11.928807 -15.394932
3
Kinetic Energy: 0.468362, Potential Energy: -0.000000, Total Energy: 0.468362
Atom1 -5.933105 -11.866210 -17.223609
Atom2 -0.001027 -0.002054 32.798237
Atom3 6.034132 12.068264 -15.574628
3
Kinetic Energy: 0.468362, Potential Energy: -0.000000, Total Energy: 0.468362
Atom1 -6.002820 -12.005640 -17.425697
Atom2 -0.001040 -0.002081 33.180022
Atom3 6.103860 12.207721 -15.754325
3
Kinetic Energy: 0.468362, Potential Energy: -0.000000, Total Energy: 0.468362
Atom1 -6.072535 -12.145070 -17.627785
Atom2 -0.001054 -0.002108 33.561807
Atom3 6.173589 12.347178 -15.934022
3
Kinetic Energy: 0.468362, Potential Energy: -0.000000, Total Energy: 0.468362
Atom1 -6.142250 -12.284500 -17.829873
Atom2 -0.001068 -0.002135 33.943592
Atom3 6.243318 12.486635 -16.113719
3
Kinetic Energy: 0.468362, Potential Energy: -0.000000, Total Energy: 0.468362
Atom1 -6.211965 -12.423930 -18.031961
Atom2 -0.001081 -0.002162 34.325377
Atom3 6.313046 12.626092 -16.293416
3
Kinetic Energy: 0.468362, Potential Energy: -0.000000, Total Energy: 0.468362
Atom1 -6.281680 -12.563360 -18.234049
Atom2 -0.001095 -0.002189 34.707162
Atom3 6.382775 12.765549 -16.473113
3
Kinetic Energy: 0.468362, Potential Energy: -0.000000, Total Energy: 0.468362
Atom1 -6.351395 -12.702790 -18.436137
Atom2 -0.001108 -0.002217 35.088947
Atom3 6.452503 12.905006 -16.652810
3
Kinetic Energy: 0.468362, Potential Energy: -0.000000, Total Energy: 0.468362
Atom1 -6.421110 -12.842220 -18.638225
Atom2 -0.001122 -0.002244 35.470732
Atom3 6.522232 13.044464 -16.832507
3
Kinetic Energy: 0.468362, Potential Energy: -0.000000, Total Energy: 0.468362
Atom1 -6.490825 -12.981650 -18.840313
Atom2 -0.001135 -0.002271 35.852517
Atom3 6.591960 13.183921 -17.012204
3
Kinetic Energy: 0.468362, Potential Energy: -0.000000, Total Energy: 0.468362
Atom1 -6.560540 -13.121080 -19.042401
Atom2 -0.001149 -0.002298 36.234302
Atom3 6.661689 13.323378 -17.191901
3
Kinetic Energy: 0.468362, Potential Energy: -0.000000, Total Energy: 0.468362
Atom1 -6.630255 -13.260510 -19.244489
Atom2 -0.001163 -0.002325 36.616087
Atom3 6.731418 13.462835 -17.371598
3
Kinetic Energy: 0.468362, Potential Energy: -0.000000, Total Energy: 0.468362
Atom1 -6.699970 -13.399940 -19.446576
Atom2 -0.001176 -0.002352 36.997872
Atom3 6.801146 13.602292 -17.551295
3
Kinetic Energy: 0.468362, Potential Energy: -0.000000, Total Energy: 0.468362
Atom1 -6.769685 -13.539370 -19.648664
Atom2 -0.001190 -0.002379 37.379657
Atom3 6.870875 13.741749 -17.730992
3
Kinetic Energy: 0.468362, Potential Energy: -0.000000, Total Energy: 0.468362
Atom1 -6.839400 -13.678800 -19.850752
Atom2 -0.001203 -0.002407 37.761441
Atom3 6.940603 13.881206 -17.910689
3
Kinetic Energy: 0.468362, Potential Energy: -0.000000, Total Energy: 0.468362
Atom1 -6.909115 -13.818230 -20.052840
Atom2 -0.001217 -0.002434 38.143226
Atom3 7.010332 14.020664 -18.090386
